% Model:              just_a_wire.mph
% Version:            COMSOL 6.2.0.339
% Date:               Jun 24 2025, 10:33
% Dimension:          1
% Nodes:              3898
% Expressions:        1
% Description:        Line graph
% Arc length (m)          Temperature
0                         2784.613548760092
2.1184008703771664E-5     2784.6135495835597
4.236801740754333E-5      2784.613549184592
6.355202611131499E-5      2784.61354756319
8.851298276459343E-5      2784.6135484591045
1.1347393941787184E-4     2784.6135485740456
1.3843489607115027E-4     2784.6135479080135
1.6408561715066376E-4     2784.6135486349144
1.897363382301772E-4      2784.613548638477
2.1538705930969067E-4     2784.6135479187024
2.4105584659542945E-4     2784.6135486400785
2.667246338811682E-4      2784.6135486400917
2.923934211669069E-4      2784.613547918743
3.1806220845264564E-4     2784.6135486399694
3.437309957383843E-4      2784.613548639894
3.6939978302412304E-4     2784.6135479185155
3.9506857030986183E-4     2784.613548639745
4.207373575956005E-4      2784.6135486396724
4.464061448813393E-4      2784.613547918298
4.7207493216707807E-4     2784.613548639532
4.977437194528168E-4      2784.613548639463
5.234125067385555E-4      2784.613547918092
5.490812940242943E-4      2784.613548639329
5.74750081310033E-4       2784.6135486392636
6.004188685957717E-4      2784.6135479178965
6.260876558815106E-4      2784.6135486391377
6.517564431672493E-4      2784.6135486390754
6.77425230452988E-4       2784.6135479177115
7.030940177387267E-4      2784.6135486389558
7.287628050244655E-4      2784.613548638897
7.544315923102042E-4      2784.613547917536
7.801003795959429E-4      2784.6135486387825
8.057691668816817E-4      2784.613548638727
8.314379541674204E-4      2784.61354791737
8.571067414531591E-4      2784.6135486386197
8.827755287388979E-4      2784.613548638567
9.084443160246366E-4      2784.6135479172126
9.341131033103755E-4      2784.6135486384646
9.597818905961144E-4      2784.613548638415
9.854506778818532E-4      2784.6135479170625
0.001011119465167592      2784.6135486383187
0.0010367882524533305     2784.6135486382714
0.0010624570397390692     2784.6135479169216
0.0010881258270248081     2784.6135486381795
0.0011137946143105469     2784.6135486381345
0.0011394634015962856     2784.613547916787
0.0011651321888820243     2784.613548638047
0.0011908009761677628     2784.6135486380044
0.0012164697634535016     2784.61354791666
0.0012421385507392405     2784.6135486379226
0.0012678073380249792     2784.613548637882
0.001293476125310718      2784.61354791654
0.0013191449125964567     2784.6135486378043
0.0013448136998821952     2784.6135486377657
0.001370482487167934      2784.613547916425
0.0013961512744536729     2784.6135486376916
0.0014218200617394116     2784.613548637656
0.0014474888490251503     2784.613547916317
0.001473157636310889      2784.613548637586
0.0014988264235966278     2784.6135486375515
0.0015244952108823665     2784.613547916215
0.0015501639981681053     2784.6135486374856
0.001575832785453844      2784.613548637453
0.0016015015727395825     2784.6135479161176
0.0016271703600253215     2784.61354863739
0.0016528391473110604     2784.613548637359
0.0016785079345967993     2784.6135479160257
0.001704176721882538      2784.6135486372996
0.0017298455091682766     2784.61354863727
0.0017555142964540153     2784.6135479159384
0.0017811830837397543     2784.613548637214
0.001806851871025493      2784.6135486371863
0.0018325206583112317     2784.613547915856
0.0018581894455969705     2784.613548637132
0.0018838582328827092     2784.6135486371063
0.001909527020168448      2784.613547915778
0.0019351958074541866     2784.613548637056
0.0019608645947399254     2784.6135486370313
0.001986533382025664      2784.6135479157033
0.002012202169311403      2784.613548636983
0.0020378709565971416     2784.613548636959
0.0020635397438828807     2784.6135479156333
0.0020892085311686195     2784.613548636914
0.0021148773184543578     2784.613548636891
0.0021405461057400965     2784.6135479155664
0.002166214893025835      2784.6135486368485
0.002191883680311574      2784.6135486368275
0.002217552467597313      2784.6135479155027
0.002243221254883052      2784.613548636786
0.0022688900421687906     2784.6135486367657
0.0022945588294545293     2784.613547915443
0.002320227616740268      2784.613548636728
0.0023458964040260063     2784.6135486367084
0.002371565191311745      2784.6135479153863
0.0023972339785974838     2784.6135486366716
0.0024229027658832225     2784.6135486366534
0.0024485715531689617     2784.613547915332
0.002474240340454701      2784.6135486366184
0.002499909127740439      2784.613548636601
0.002525577915026178      2784.6135479152813
0.002551246702311917      2784.613548636568
0.0025769154895976553     2784.613548636552
0.002602584276883394      2784.613547915233
0.002628253064169133      2784.613548636521
0.0026539218514548715     2784.613548636505
0.0026795906387406102     2784.613547915187
0.002705259426026349      2784.613548636476
0.0027309282133120873     2784.613548636461
0.002756597000597826      2784.6135479151435
0.002782265787883565      2784.613548636433
0.0028079345751693043     2784.613548636419
0.002833603362455043      2784.613547915103
0.0028592721497407818     2784.6135486363933
0.00288494093702652       2784.6135486363796
0.002910609724312259      2784.6135479150635
0.002936278511597998      2784.6135486363546
0.0029619472988837367     2784.6135486363423
0.0029876160861694754     2784.6135479150266
0.003013284873455214      2784.6135486363182
0.003038953660740953      2784.613548636307
0.003064622448026691      2784.6135479149916
0.00309029123531243       2784.613548636284
0.003115960022598168      2784.6135486362723
0.003141628809883907      2784.613547914958
0.003167297597169646      2784.613548636251
0.0031929663844553853     2784.61354863624
0.003218635171741124      2784.6135479149266
0.0032443039590268627     2784.61354863622
0.0032699727463126015     2784.6135486362095
0.0032956415335983398     2784.6135479148966
0.003321310320884079      2784.6135486361904
0.0033469791081698176     2784.6135486361804
0.0033726478954555564     2784.613547914868
0.003398316682741295      2784.6135486361622
0.003423985470027033      2784.613548636153
0.0034496542573127717     2784.6135479148415
0.003475323044598511      2784.613548636137
0.00350099183188425       2784.613548636128
0.0035266606191699888     2784.613547914816
0.0035523294064557275     2784.613548636111
0.003577998193741466      2784.6135486361027
0.0036036669810272045     2784.613547914792
0.0036293357683129437     2784.6135486360877
0.0036550045555986824     2784.6135486360795
0.003680673342884421      2784.613547914769
0.0037063421301701607     2784.613548636065
0.0037320109174558995     2784.6135486360577
0.003757679704741638      2784.613547914747
0.003783348492027377      2784.613548636044
0.003809017279313115      2784.6135486360367
0.003834686066598854      2784.6135479147265
0.0038603548538845927     2784.6135486360236
0.003886023641170331      2784.613548636017
0.00391169242845607       2784.613547914707
0.003937361215741809      2784.6135486360035
0.003963030003027548      2784.613548635997
0.003988698790313287      2784.6135479146883
0.0040143675775990255     2784.6135486359863
0.004040036364884764      2784.61354863598
0.004065705152170503      2784.613547914671
0.004091373939456242      2784.6135486359685
0.00411704272674198       2784.6135486359626
0.004142711514027719      2784.613547914654
0.004168380301313458      2784.613548635952
0.004194049088599196      2784.6135486359467
0.0042197178758849345     2784.6135479146383
0.004245386663170674      2784.6135486359362
0.004271055450456413      2784.6135486359312
0.0042967242377421515     2784.6135479146233
0.00432239302502789       2784.613548635922
0.004348061812313629      2784.613548635917
0.004373730599599368      2784.6135479146096
0.0043993993868851064     2784.613548635908
0.004425068174170845      2784.613548635903
0.004450736961456583      2784.6135479145955
0.004476405748742323      2784.6135486358953
0.004502074536028061      2784.6135486358908
0.0045277433233138        2784.613547914583
0.004553412110599539      2784.613548635882
0.0045790808978852775     2784.613548635878
0.004604749685171015      2784.6135479145705
0.004630418472456755      2784.6135486358703
0.004656087259742494      2784.613548635866
0.0046817560470282325     2784.6135479145587
0.004707424834313971      2784.6135486358585
0.00473309362159971       2784.613548635855
0.004758762408885449      2784.6135479145482
0.004784431196171187      2784.6135486358476
0.004810099983456926      2784.613548635844
0.004835768770742665      2784.613547914538
0.004861437558028404      2784.613548635838
0.004887106345314142      2784.6135486358344
0.00491277513259988       2784.6135479145273
0.00493844391988562       2784.6135486358276
0.0049641127071713585     2784.6135486358244
0.004989781494457098      2784.6135479145178
0.005015450281742837      2784.613548635818
0.005041119069028575      2784.6135486358153
0.005066787856314313      2784.6135479145096
0.005092456643600052      2784.61354863581
0.005118125430885792      2784.6135486358066
0.0051437942181715305     2784.6135479145005
0.005169463005457269      2784.6135486358007
0.005195131792743007      2784.613548635798
0.005220800580028746      2784.6135479144923
0.0052464693673144845     2784.613548635793
0.005272138154600223      2784.6135486357903
0.005297806941885962      2784.6135479144846
0.005323475729171701      2784.6135486357857
0.0053491445164574394     2784.613548635783
0.005374813303743178      2784.6135479144773
0.005400482091028917      2784.613548635779
0.0054261508783146565     2784.613548635776
0.005451819665600395      2784.613547914471
0.005477488452886134      2784.613548635772
0.005503157240171872      2784.6135486357693
0.0055288260274576105     2784.613547914464
0.005554494814743349      2784.6135486357653
0.005580163602029089      2784.613548635763
0.005605832389314828      2784.613547914458
0.005631501176600566      2784.613548635759
0.005657169963886304      2784.6135486357566
0.005682838751172043      2784.6135479144514
0.005708507538457782      2784.613548635753
0.005734176325743521      2784.6135486357507
0.00575984511302926       2784.6135479144464
0.005785513900314999      2784.6135486357475
0.0058111826876007374     2784.6135486357452
0.005836851474886476      2784.613547914441
0.005862520262172216      2784.613548635743
0.005888189049457954      2784.613548635741
0.005913857836743692      2784.613547914436
0.005939526624029431      2784.6135486357375
0.00596519541131517       2784.613548635736
0.0059908641986009085     2784.613547914431
0.006016532985886648      2784.6135486357325
0.006042201773172386      2784.6135486357307
0.006067870560458125      2784.6135479144264
0.0060935393477438635     2784.613548635729
0.006119208135029601      2784.6135486357266
0.006144876922315339      2784.613547914422
0.006170545709601079      2784.6135486357234
0.006196214496886818      2784.6135486357225
0.006221883284172557      2784.613547914418
0.006247552071458296      2784.6135486357207
0.006273220858744034      2784.613548635719
0.0062988896460297724     2784.613547914414
0.006324558433315511      2784.613548635716
0.006350227220601249      2784.6135486357143
0.006375896007886989      2784.61354791441
0.006401564795172728      2784.613548635713
0.006427233582458466      2784.6135486357116
0.006452902369744206      2784.613547914407
0.006478571157029945      2784.6135486357093
0.006504239944315684      2784.613548635708
0.006529908731601423      2784.613547914403
0.006555577518887162      2784.6135486357057
0.0065812463061729        2784.6135486357043
0.006606915093458638      2784.6135479143995
0.006632583880744378      2784.613548635702
0.0066582526680301155     2784.6135486357007
0.006683921455315854      2784.6135479143963
0.006709590242601593      2784.6135486356984
0.006735259029887331      2784.613548635697
0.00676092781717307       2784.613547914393
0.006786596604458809      2784.6135486356957
0.006812265391744548      2784.6135486356943
0.0068379341790302875     2784.6135479143904
0.006863602966316026      2784.613548635693
0.006889271753601763      2784.6135486356916
0.006914940540887502      2784.6135479143877
0.0069406093281732415     2784.6135486356898
0.00696627811545898       2784.6135486356884
0.00699194690274472       2784.613547914385
0.0070176156900304595     2784.6135486356875
0.007043284477316197      2784.6135486356866
0.007068953264601935      2784.613547914382
0.007094622051887675      2784.6135486356848
0.0071202908391734135     2784.613548635684
0.007145959626459152      2784.61354791438
0.007171628413744892      2784.6135486356825
0.00719729720103063       2784.6135486356816
0.0072229659883163684     2784.6135479143772
0.007248634775602107      2784.61354863568
0.007274303562887845      2784.613548635679
0.007299972350173584      2784.613547914375
0.007325641137459323      2784.613548635678
0.007351309924745062      2784.6135486356766
0.007376978712030802      2784.6135479143727
0.0074026474993165396     2784.613548635676
0.007428316286602277      2784.613548635675
0.007453985073888016      2784.6135479143713
0.007479653861173756      2784.6135486356743
0.0075053226484594945     2784.6135486356734
0.007530991435745234      2784.613547914369
0.007556660223030973      2784.6135486356725
0.0075823290103167115     2784.6135486356716
0.007607997797602449      2784.6135479143677
0.007633666584888189      2784.61354863567
0.007659335372173927      2784.6135486356698
0.0076850041594596664     2784.6135479143654
0.007710672946745405      2784.6135486356684
0.007736341734031144      2784.6135486356675
0.007762010521316882      2784.6135479143636
0.007787679308602621      2784.6135486356666
0.00781334809588836       2784.613548635666
0.007839016883174099      2784.6135479143622
0.007864685670459837      2784.613548635665
0.007890354457745576      2784.6135486356643
0.007916023245031314      2784.613547914361
0.007941692032317054      2784.613548635664
0.007967360819602792      2784.6135486356625
0.007993029606888531      2784.613547914359
0.00801869839417427       2784.613548635662
0.008044367181460009      2784.6135486356616
0.008070035968745747      2784.6135479143572
0.008095704756031486      2784.6135486356607
0.008121373543317224      2784.6135486356598
0.008147042330602962      2784.613547914356
0.008172711117888701      2784.6135486356593
0.008198379905174441      2784.6135486356584
0.008224048692460179      2784.6135479143545
0.008249717479745918      2784.6135486356575
0.008275386267031656      2784.613548635657
0.008301055054317396      2784.613547914353
0.008326723841603136      2784.6135486356566
0.008352392628888873      2784.6135486356557
0.008378061416174611      2784.613547914352
0.008403730203460351      2784.613548635655
0.008429398990746089      2784.6135486356548
0.008455067778031828      2784.6135479143504
0.008480736565317566      2784.613548635654
0.008506405352603306      2784.6135486356534
0.008532074139889044      2784.6135479143495
0.008557742927174783      2784.6135486356525
0.008583411714460521      2784.6135486356516
0.00860908050174626       2784.613547914348
0.008634749289032         2784.6135486356516
0.008660418076317738      2784.613548635651
0.008686086863603478      2784.6135479143472
0.008711755650889216      2784.6135486356507
0.008737424438174955      2784.61354863565
0.008763093225460693      2784.6135479143463
0.008788762012746431      2784.6135486356493
0.00881443080003217       2784.613548635649
0.008840099587317908      2784.6135479143454
0.008865768374603648      2784.613548635648
0.008891437161889386      2784.613548635648
0.008917105949175124      2784.6135479143445
0.008942774736460863      2784.613548635648
0.008968443523746601      2784.613548635647
0.00899411231103234       2784.613547914343
0.00901978109831808       2784.613548635646
0.009045449885603818      2784.6135486356457
0.009071118672889558      2784.613547914342
0.009096787460175296      2784.6135486356457
0.009122456247461035      2784.613548635645
0.009148125034746773      2784.6135479143413
0.009173793822032513      2784.6135486356443
0.00919946260931825       2784.6135486356443
0.00922513139660399       2784.6135479143404
0.00925080018388973       2784.613548635644
0.009276468971175468      2784.613548635643
0.009302137758461206      2784.6135479143395
0.009327806545746945      2784.6135486356425
0.009353475333032683      2784.6135486356425
0.009379144120318423      2784.6135479143386
0.00940481290760416       2784.6135486356416
0.0094304816948899        2784.613548635641
0.009456150482175638      2784.6135479143377
0.00948181926946138       2784.6135486356407
0.009507488056747117      2784.61354863564
0.009533156844032857      2784.613547914337
0.009558825631318596      2784.61354863564
0.009584494418604334      2784.6135486356393
0.009610163205890072      2784.613547914336
0.00963583199317581       2784.6135486356393
0.00966150078046155       2784.613548635639
0.009687169567747287      2784.613547914335
0.009712838355033025      2784.6135486356384
0.009738507142318765      2784.613548635638
0.009764175929604503      2784.6135479143345
0.009789844716890242      2784.613548635638
0.00981551350417598       2784.6135486356375
0.00984118229146172       2784.613547914334
0.00986685107874746       2784.613548635637
0.009892519866033197      2784.6135486356366
0.009918188653318935      2784.613547914333
0.009943857440604675      2784.613548635636
0.009969526227890414      2784.613548635636
0.009995195015176154      2784.6135479143327
0.010020863802461893      2784.613548635636
0.010046532589747631      2784.613548635635
0.01007220137703337       2784.613547914332
0.010097870164319109      2784.613548635635
0.010123538951604845      2784.6135486356343
0.010149207738890585      2784.613547914331
0.010174876526176324      2784.6135486356343
0.010200545313462064      2784.613548635634
0.010226214100747802      2784.61354791433
0.010251882888033541      2784.6135486356334
0.010277551675319279      2784.613548635633
0.010303220462605019      2784.6135479143295
0.010328889249890758      2784.6135486356325
0.010354558037176494      2784.6135486356325
0.010380226824462232      2784.613547914329
0.010405895611747972      2784.6135486356325
0.01043156439903371       2784.6135486356316
0.01045723318631945       2784.613547914328
0.010482901973605189      2784.613548635632
0.010508570760890928      2784.613548635631
0.010534239548176666      2784.6135479143277
0.010559908335462404      2784.613548635631
0.010585577122748144      2784.61354863563
0.010611245910033882      2784.613547914327
0.010636914697319621      2784.6135486356297
0.010662583484605359      2784.6135486356293
0.010688252271891097      2784.613547914326
0.010713921059176837      2784.6135486356293
0.010739589846462574      2784.613548635629
0.010765258633748314      2784.613547914325
0.010790927421034054      2784.613548635628
0.010816596208319793      2784.613548635628
0.010842264995605531      2784.6135479143245
0.01086793378289127       2784.613548635628
0.010893602570177009      2784.613548635627
0.010919271357462748      2784.6135479143236
0.010944940144748488      2784.613548635628
0.010970608932034224      2784.613548635627
0.010996277719319962      2784.613547914323
0.011021946506605703      2784.613548635626
0.011047615293891441      2784.613548635626
0.01107328408117718       2784.613547914322
0.01109895286846292       2784.6135486356256
0.011124621655748658      2784.613548635625
0.011150290443034396      2784.6135479143218
0.011175959230320135      2784.613548635625
0.011201628017605873      2784.6135486356247
0.011227296804891613      2784.613547914321
0.011252965592177352      2784.613548635624
0.011278634379463089      2784.613548635624
0.011304303166748826      2784.6135479143204
0.011329971954034566      2784.613548635624
0.011355640741320304      2784.613548635623
0.011381309528606044      2784.6135479143195
0.011406978315891783      2784.613548635624
0.011432647103177523      2784.613548635623
0.01145831589046326       2784.613547914319
0.011483984677749         2784.613548635622
0.011509653465034738      2784.6135486356216
0.011535322252320478      2784.613547914318
0.011560991039606217      2784.6135486356216
0.011586659826891953      2784.613548635621
0.011612328614177691      2784.6135479143177
0.01163799740146343       2784.6135486356206
0.011663666188749169      2784.61354863562
0.011689334976034908      2784.613547914317
0.011715003763320648      2784.61354863562
0.011740672550606386      2784.6135486356197
0.011766341337892125      2784.6135479143163
0.011792010125177865      2784.6135486356197
0.011817678912463603      2784.613548635619
0.011843347699749342      2784.6135479143154
0.011869016487035082      2784.613548635619
0.011894685274320818      2784.6135486356184
0.011920354061606556      2784.613547914315
0.011946022848892297      2784.6135486356184
0.011971691636178033      2784.613548635618
0.011997360423463773      2784.613547914314
0.012023029210749513      2784.613548635617
0.01204869799803525       2784.6135486356166
0.01207436678532099       2784.613547914313
0.01210003557260673       2784.613548635616
0.012125704359892468      2784.613548635616
0.012151373147178207      2784.613547914312
0.012177041934463947      2784.613548635615
0.012202710721749683      2784.613548635615
0.012228379509035422      2784.6135479143118
0.012254048296321162      2784.6135486356156
0.012279717083606898      2784.6135486356147
0.012305385870892638      2784.6135479143113
0.012331054658178377      2784.6135486356147
0.012356723445464115      2784.6135486356143
0.012382392232749855      2784.613547914311
0.012408061020035594      2784.6135486356143
0.012433729807321332      2784.6135486356143
0.012459398594607072      2784.6135479143104
0.012485067381892813      2784.613548635614
0.012510736169178551      2784.6135486356134
0.01253640495646429       2784.6135479143095
0.01256207374375003       2784.613548635613
0.012587742531035766      2784.6135486356125
0.012613411318321506      2784.6135479143086
0.012639080105607246      2784.6135486356116
0.012664748892892982      2784.6135486356116
0.012690417680178721      2784.613547914308
0.012716086467464461      2784.6135486356116
0.012741755254750199      2784.6135486356106
0.012767424042035937      2784.6135479143077
0.012793092829321676      2784.613548635611
0.012818761616607412      2784.61354863561
0.012844430403893152      2784.6135479143068
0.012870099191178892      2784.6135486356097
0.012895767978464628      2784.6135486356093
0.012921436765750367      2784.6135479143054
0.012947105553036107      2784.6135486356093
0.012972774340321845      2784.613548635609
0.012998443127607584      2784.6135479143054
0.013024111914893322      2784.6135486356084
0.013049780702179062      2784.613548635608
0.0130754494894648        2784.6135479143045
0.013101118276750541      2784.6135486356075
0.013126787064036279      2784.6135486356075
0.013152455851322018      2784.613547914304
0.013178124638607758      2784.6135486356075
0.013203793425893496      2784.6135486356065
0.013229462213179234      2784.613547914303
0.013255131000464972      2784.6135486356065
0.013280799787750708      2784.6135486356056
0.013306468575036446      2784.613547914302
0.013332137362322187      2784.6135486356056
0.013357806149607925      2784.613548635605
0.013383474936893664      2784.6135479143018
0.013409143724179404      2784.613548635605
0.013434812511465142      2784.6135486356047
0.013460481298750882      2784.613547914301
0.013486150086036621      2784.613548635604
0.013511818873322357      2784.613548635604
0.013537487660608097      2784.6135479143004
0.013563156447893836      2784.6135486356034
0.013588825235179574      2784.6135486356025
0.013614494022465312      2784.613547914299
0.013640162809751053      2784.6135486356025
0.013665831597036791      2784.613548635602
0.013691500384322531      2784.6135479142986
0.013717169171608272      2784.613548635602
0.01374283795889401       2784.6135486356015
0.01376850674617975       2784.613547914298
0.01379417553346549       2784.613548635601
0.013819844320751225      2784.6135486356006
0.013845513108036965      2784.613547914297
0.013871181895322705      2784.6135486356
0.01389685068260844       2784.6135486355997
0.01392251946989418       2784.6135479142963
0.01394818825717992       2784.613548635599
0.013973857044465658      2784.613548635599
0.013999525831751396      2784.6135479142954
0.014025194619037135      2784.6135486355993
0.014050863406322875      2784.6135486355984
0.014076532193608613      2784.613547914295
0.01410220098089435       2784.6135486355984
0.014127869768180088      2784.613548635598
0.014153538555465826      2784.613547914294
0.014179207342751566      2784.6135486355975
0.014204876130037304      2784.613548635597
0.014230544917323043      2784.613547914293
0.014256213704608781      2784.613548635596
0.01428188249189452       2784.6135486355956
0.014307551279180259      2784.613547914292
0.014333220066465998      2784.613548635595
0.014358888853751736      2784.613548635595
0.014384557641037474      2784.6135479142913
0.014410226428323214      2784.613548635595
0.014435895215608952      2784.6135486355943
0.01446156400289469       2784.6135479142904
0.014487232790180429      2784.613548635594
0.014512901577466167      2784.6135486355934
0.014538570364751908      2784.61354791429
0.014564239152037648      2784.6135486355934
0.014589907939323386      2784.613548635593
0.014615576726609125      2784.613547914289
0.014641245513894865      2784.613548635592
0.014666914301180601      2784.6135486355915
0.01469258308846634       2784.613547914288
0.01471825187575208       2784.6135486355906
0.01474392066303782       2784.6135486355906
0.01476958945032356       2784.613547914287
0.014795258237609299      2784.613548635591
0.014820927024895035      2784.61354863559
0.014846595812180775      2784.6135479142868
0.014872264599466514      2784.61354863559
0.014897933386752254      2784.6135486355893
0.014923602174037993      2784.613547914286
0.014949270961323731      2784.613548635589
0.014974939748609467      2784.6135486355884
0.015000608535895205      2784.6135479142845
0.015026277323180945      2784.6135486355874
0.015051946110466684      2784.6135486355874
0.015077614897752424      2784.613547914284
0.015103283685038164      2784.6135486355874
0.0151289524723239        2784.6135486355874
0.01515462125960964       2784.6135479142836
0.015180290046895379      2784.613548635587
0.015205958834181117      2784.613548635586
0.015231627621466855      2784.6135479142827
0.015257296408752594      2784.613548635586
0.01528296519603833       2784.6135486355856
0.01530863398332407       2784.6135479142818
0.01533430277060981       2784.613548635585
0.01535997155789555       2784.613548635585
0.015385640345181287      2784.6135479142813
0.015411309132467027      2784.6135486355843
0.015436977919752765      2784.613548635584
0.015462646707038502      2784.61354791428
0.01548831549432424       2784.6135486355824
0.01551398428160998       2784.6135486355824
0.015539653068895718      2784.6135479142795
0.015565321856181459      2784.613548635583
0.015590990643467197      2784.613548635582
0.015616659430752937      2784.613547914278
0.015642328218038674      2784.613548635581
0.015667997005324414      2784.61354863558
0.015693665792610154      2784.6135479142768
0.015719334579895893      2784.6135486355806
0.01574500336718163       2784.61354863558
0.01577067215446737       2784.6135479142763
0.01579634094175311       2784.6135486355793
0.015822009729038848      2784.6135486355793
0.015847678516324584      2784.6135479142754
0.015873347303610327      2784.613548635579
0.015899016090896063      2784.613548635578
0.015924684878181803      2784.613547914275
0.015950353665467543      2784.6135486355784
0.01597602245275328       2784.6135486355774
0.01600169124003902       2784.6135479142736
0.016027360027324758      2784.613548635577
0.016053028814610494      2784.613548635577
0.01607869760189623       2784.613547914273
0.016104366389181973      2784.613548635576
0.01613003517646771       2784.6135486355756
0.01615570396375345       2784.613547914272
0.01618137275103919       2784.613548635575
0.016207041538324925      2784.6135486355747
0.016232710325610664      2784.6135479142713
0.016258379112896404      2784.6135486355747
0.016284047900182144      2784.613548635574
0.016309716687467883      2784.6135479142704
0.01633538547475362       2784.613548635574
0.01636105426203936       2784.613548635573
0.016386723049325095      2784.6135479142695
0.016412391836610835      2784.613548635573
0.016438060623896574      2784.6135486355724
0.016463729411182314      2784.6135479142686
0.016489398198468053      2784.613548635572
0.01651506698575379       2784.6135486355715
0.01654073577303953       2784.6135479142677
0.01656640456032527       2784.6135486355706
0.01659207334761101       2784.6135486355706
0.016617742134896748      2784.6135479142667
0.016643410922182487      2784.6135486355706
0.016669079709468224      2784.6135486355697
0.016694748496753963      2784.613547914266
0.016720417284039703      2784.6135486355693
0.016746086071325442      2784.613548635569
0.016771754858611182      2784.6135479142654
0.016797423645896918      2784.6135486355683
0.016823092433182654      2784.613548635568
0.016848761220468394      2784.613547914264
0.016874430007754133      2784.613548635567
0.016900098795039873      2784.613548635567
0.016925767582325613      2784.6135479142636
0.016951436369611352      2784.613548635566
0.01697710515689709       2784.613548635566
0.017002773944182828      2784.6135479142627
0.017028442731468568      2784.613548635566
0.017054111518754307      2784.613548635565
0.017079780306040043      2784.6135479142617
0.017105449093325783      2784.6135486355647